VARIABLES = "X"
 "Y"
 "Z"
 "HEAD"
 "VELOCITY_X1"
 "VELOCITY_Y1"
 "VELOCITY_Z1"
 "Bfo1"
 "Bmo1"
 "doc1"
 "dox1"
 "Amm1"
 "Bifo1"
 "Bimo1"
 "Bfn1"
 "Bmn1"
 "nitra1"
 "Bifn1"
 "Bimn1"
 "Bfs1"
 "Bms1"
 "sulpha1"
 "Bifs1"
 "Bims1"
 "Bfa1"
 "Bma1"
 "Bifa1"
 "Bima1"
 "tr1"
 "Distance"
ZONE
DT=(DOUBLE,DOUBLE,DOUBLE,DOUBLE,DOUBLE,DOUBLE,DOUBLE,DOUBLE,DOUBLE,DOUBLE,DOUBLE,DOUBLE,DOUBLE,DOUBLE,DOUBLE,DOUBLE,DOUBLE,DOUBLE,DOUBLE,DOUBLE,DOUBLE,DOUBLE,DOUBLE,DOUBLE,DOUBLE,DOUBLE,DOUBLE,DOUBLE,DOUBLE,DOUBLE)
    0.00107997898480335       0.474871475861157                       0    0.000467178597069761   2.28360605474848E-005  -6.80416048702936E-005                       0        134.926687997239        19.5508104576029        492.448067412356        4.08817690211263        46.4799056929224        146.101550308966        31.0861907105633        26.8738816293039        1.77315890409134        199.672483234513        20.7274930731576         6.0943855368866      0.0236205732472066      0.0813867496727957                    1500          19.30581047771        3.84614590877443        5.23746531869808         1.2071150060167        6.90326174645833        1.44167838032546                      20       0.026390362835641
    0.00104818339000615       0.448481132179481                       0    0.000465738051699041   8.07102886287114E-007  -3.96404116226325E-006                       0       0.107135328679677      0.0372012643905959        481.794154217115        1.27280975166755        46.1758633873965        281.580018191531        49.4789982618058        2.71039792010214       0.521476832308196         192.74240610979        39.5459196742183        6.97303282174535     0.00114923436267441    0.000183352505987699                    1500        21.8581099316398        3.84187716790413        2.02442116347317       0.379575593025798        4.93987611854615       0.916726540877073                      20       0.052780725671282
    0.00101638779520895       0.422090788497806                       0    0.000454452551703008   1.11352009472453E-006  -3.22592687532516E-006                       0       0.666979508717372       0.126502159079967        502.750370822851        2.02631040834743        46.2418412536732        280.628683968897        46.7806841441103       0.494458887594201      0.0830029880147134        207.410909017429        42.9326943878382        7.17125075735897    0.000831532287782374    0.000152632508161711                    1500        22.7178865907985        3.78633248908106        2.62310797483885       0.521179084385836      0.0403980696382987      0.0135225272875565                      20       0.079171088506923
   0.000984592200411752       0.395700444816131                       0    0.000415264916549256   -0.000176217749829929   -0.000177491824836417                       0        2.50692756169594       0.557654879432232        512.060473877982        2.59934503925084        46.3412529457022        276.638339938574        45.6003385840236       0.189008352690051      0.0328309241941123        214.102336386674        43.4941099614846        7.18363672319243    0.000790341980877849    0.000433993753865093                    1500        22.9539903528393        3.78831886082053        3.78419757402808       0.744792964668798      0.0104790443219803      0.0121687725879499                      20       0.105561451342564
   0.000952796605614554       0.369310101134456                       0    0.000391281633136266   -0.000378916725982508    -0.00229750012621288                       0        2.44133803071882       0.574445911173179        513.401024738102        2.58102357417829        46.3956014785931        276.667219582948        45.3488202427416       0.197187424543585      0.0352369304788777        214.854000610262         43.289846742744        7.11384330521653    0.000815826236227476    0.000515354881638659                    1500        22.9907538069321        3.77564785477312        3.60282783942959       0.705098430843086      0.0110287625367798      0.0127887535935256                      20       0.131951814178205
   0.000921001010817356       0.342919757452781                       0    0.000362547188904466  -2.59747760087704E-005    -0.00322732745094393                       0        2.00712188231856       0.420971335404759        515.101387510042        2.48887443209456        46.4742732685229        277.360469570083        45.0984749750772       0.232481332745578      0.0393059178132005        215.689436709181        42.9645634979017        6.99652059959851    0.000774932190535737    0.000301538383246917                    1500        23.0662528879309        3.75256868524038        3.05058798807446        0.59500275748771      0.0071659094152599     0.00774329131885883                      20       0.158342177013846
   0.000889205416020158       0.316529413771105                       0    0.000355650435328723    0.000182411611342256    -0.00292138336765481                       0        1.65352643484454       0.315536549518818        517.185615130442        2.39673063955761        46.5775512669978        278.019458840763        44.7313048538157       0.277610011272863      0.0454664546598772         216.72498644468        42.5332922861017        6.85088399470305    0.000764944216705468    0.000196523262282373                    1500        23.1547176733177        3.72478447148908        2.48856496257853       0.482551868665748     0.00482935136187602     0.00441020366194009                      20       0.184732539849487
    0.00085740982122296        0.29013907008943                       0    0.000294529573237737   3.78324673498586E-006    -0.00313876530339149                       0        1.39418391077105       0.247810176081877        519.417960408709        2.31515486750591        46.6991068203159        278.547168342198        44.2938754112036       0.328016642496114      0.0526340668179125        217.823689752218        42.0158646215629        6.68856501756461    0.000770427231160557    0.000151391017523661                    1500        23.2436320912486        3.69432111105796        1.98547010318557       0.382083323096887     0.00373043169370096     0.00251734781277757                      20       0.211122902685128
   0.000825614226425762       0.263748726407755                       0    0.000191496285039504    0.000337055924432392    -0.00131397557922833                       0        1.20104323005779       0.202079923193622           521.632855897        2.24311001883664        46.8312480361713        279.039116178083        43.8203696122441       0.383641425321993      0.0603417888926946         218.88621418265         41.452919991954        6.51844399620708    0.000782696988906571    0.000133290995614068                    1500        23.3365360880108        3.66243479873823        1.53644343819809       0.293187781812476     0.00329139756749621     0.00145429204298755                      20       0.237513265520769
   0.000793818631628564        0.23735838272608                       0    0.000157732796996617    0.000451136898808653   -0.000925210382622079                       0        1.06623632183395       0.172120482887007        523.407624569486        2.18657100804883        46.9560684040142        279.381771677479        43.3766218438399       0.434435658216368      0.0671740670253839        219.667830507796        40.9268194161288        6.36456156653671    0.000795331743131735     0.00012629639103242                    1500        23.4144331365331        3.63277125276018        1.18044807805389       0.223405533504087     0.00310490347551736    0.000892016936669353                      20        0.26390362835641
   0.000762023036831366       0.210968039044405                       0    0.000155049149244079   7.92170114320078E-006   -0.000119702109440968                       0       0.950028573552733       0.147772863473644        524.788746912939        2.13298516984575        47.0892250499921        279.703487609057        42.8955229460648       0.488460900201649      0.0741841768994114        220.120176152776        40.4102361135644        6.20972979153703    0.000809923454735098    0.000124013931817301                    1500        23.4946803647778         3.6005600894294       0.828792754222553       0.155448687040158     0.00285592036729845     0.00054873315953556                      20       0.290293991192051
   0.000730227442034168        0.18457769536273                       0    0.000153661767475839   -0.000145525347721619   -0.000242636206397294                       0       0.906532710947766       0.139629553560002        525.585693610498         2.1106726582331        47.1943815145428        279.754779213533        42.5358690385169       0.512184526171289      0.0773294151236867        220.287447450607        40.0188317097851        6.09787639346015    0.000817224568138582    0.000124111767320936                    1500        23.5388633700137        3.57649645249778       0.690517244905082       0.128595649209253     0.00274694671010674    0.000504914078597463                      20       0.316684354027692
    0.00069843184723697       0.158187351681054                       0    0.000150572186879896    0.000158179869806942    -0.00193292763263586                       0       0.883580500661621       0.135322973863719        526.010606045865         2.0986404071919         47.262073690165        279.691148319763        42.3047537695399       0.524847736019243       0.078946646607922         220.33117198712        39.7660876253792        6.02834761357851     0.00082123997212976    0.000124087950184568                    1500         23.559482626206        3.56102326472071       0.615836214927644       0.114196822348993     0.00264375474000291    0.000475241985187133                      20       0.343074716863333
   0.000666636252439772       0.131797007999379                       0    0.000145173285437659   -0.000303537827649909    -0.00477252676741327                       0       0.858797952371635       0.130510261896041        526.390622290372        2.08561310397718        47.3307208059544        279.625808453063         42.066826678618       0.538735719215282      0.0806471949537824        220.334497415744        39.5169460184614         5.9588990620298    0.000825649098610778    0.000124035527693947                    1500        23.5812222265031        3.54510846950131       0.530935292200079      0.0980177603742669     0.00247701296079949    0.000434212117973652                      20       0.369465079698974
   0.000634840657642574       0.105406664317704                       0    0.000141419659019702    0.000224578083221987    -0.00483991334550977                       0       0.841110236796505       0.127015441905119        526.685273832299        2.07597492537457        47.3885768855646        279.626399945997        41.8672300092936       0.549122254711015      0.0818571802443304        220.319777952013         39.319392372356        5.90144124266264    0.000829268751391429    0.000123975334779688                    1500        23.6044893358707        3.53177209926363       0.468535524443516      0.0861606081439731     0.00232618180073667     0.00040314346174276                      20       0.395855442534615
   0.000603045062845376      0.0790163206360289                       0    0.000131331766368351    0.000299187017178571    -0.00353363702680008                       0       0.827011726649835        0.12417652838515         526.94717505363        2.06804725393881        47.4420546559021        279.657685364723        41.6838720226247       0.557712790062662      0.0828071105641624        220.299869805448        39.1425095932896        5.84890971055597    0.000832494731288692    0.000123897132949669                    1500        23.6287220419111        3.51952730694219       0.418042682405131      0.0765897425792788     0.00218536855651393    0.000376719309778042                      20       0.422245805370256
   0.000571249468048178      0.0526259769543536                       0   8.08969625811726E-005   -0.000309976281351925    -0.00157950218314235                       0       0.814910070782629       0.121688276911444        527.200995385791        2.06102194733346        47.4946023085151        279.715325515892        41.5048378652452       0.565369830892897      0.0836077651333957        220.278919718297        38.9720244571193        5.79760007531182    0.000835573016211168    0.000123798919431283                    1500        23.6549007230846        3.50757340007017       0.374303671360725      0.0683217392620623     0.00204818037096133    0.000352502213700695                      20       0.448636168205897
    0.00053945387325098      0.0262356332726785                       0   3.00664599642815E-005    -0.00113499639779559    -0.00454089933710376                       0        0.80826220488599       0.120383614317917        527.346764580038        2.05730921385749        47.5248048650347        279.614712281266        41.4025028200238       0.569130807936245      0.0840101456452955        220.267372803104        38.8549282430342        5.76819330111587    0.000836863991482081    0.000123732114905308                    1500        23.6586369688657        3.50073965217472       0.351641160887706      0.0640705379807455     0.00197132487483464    0.000339369859545246                      20       0.475026531041538
