VARIABLES = "X"
 "Y"
 "Z"
 "HEAD"
 "VELOCITY_X1"
 "VELOCITY_Y1"
 "VELOCITY_Z1"
 "Bfo1"
 "Bmo1"
 "doc1"
 "dox1"
 "Amm1"
 "Bifo1"
 "Bimo1"
 "Bfn1"
 "Bmn1"
 "nitra1"
 "Bifn1"
 "Bimn1"
 "Bfs1"
 "Bms1"
 "sulpha1"
 "Bifs1"
 "Bims1"
 "Bfa1"
 "Bma1"
 "Bifa1"
 "Bima1"
 "tr1"
 "DOXFLUX"
 "SFLUX"
ZONE
DT=(DOUBLE,DOUBLE,DOUBLE,DOUBLE,DOUBLE,DOUBLE,DOUBLE,DOUBLE,DOUBLE,DOUBLE,DOUBLE,DOUBLE,DOUBLE,DOUBLE,DOUBLE,DOUBLE,DOUBLE,DOUBLE,DOUBLE,DOUBLE,DOUBLE,DOUBLE,DOUBLE,DOUBLE,DOUBLE,DOUBLE,DOUBLE,DOUBLE,DOUBLE,DOUBLE,DOUBLE)
     0.0156398512887532       0.498708484238766                       0    0.000511986726352182   1.15382996010911E-006  -7.25952081288631E-005                       0         343.86354401514        5.79804920058421        773.748809586313        225.742198745824        58.6974872482574        2.09226590424995        3.04374894871287       0.442986727926818        1.82546763216111        248.308072537024        19.5088054013148        5.20075308922092       0.440940003298534        1.81776896746134                    1500        10.8837892123839        2.17801580074545         8.9402911021146        2.04089581286205        1.27754908378106        1.87133049061003                      20      0.0165065784685125       0.108892807877751 
     0.0313978474314788       0.498708484238766                       0    0.000511911802009208   6.25939430584571E-006  -5.55094803539072E-005                       0        343.720904953585        5.95925751395854        773.174729337025        224.930442892208        58.6509686629646        2.11056064099221        3.06455927892163       0.440393757851791        1.81482427811623        248.554838481026        19.5378133987719        5.20893287379505        0.43985252261029        1.81323987498304                    1500        10.9035445773895        2.18259588889741        8.95352841405321        2.05261863627544         1.2675430730242        1.85649532221314                      20      0.0120733487927433      0.0832642215146871 
     0.0471558435742044       0.498708484238766                       0    0.000511856438509099   5.32546965806412E-006   -0.000115887273048498                       0         344.28411768736        5.99554595681077        774.742301780946        226.477356503371        58.7326987043594        1.86688821214379        2.72525441235009       0.442989435824341          1.825708884922        248.611057583528        19.4558990991301        5.19900979082018        0.44228809012369        1.82344894788499                    1500         10.856628129741        2.17271810119671        8.93907452072702        2.05096674441542        1.27379969789351        1.86655902145684                      20      0.0264098361025803       0.173830908152856 
       0.06291383971693       0.498708484238766                       0    0.000511781529201362  -5.64054584524993E-006   -0.000368938893077124                       0        344.984381367451        4.90512643268044        782.661612971072        233.914751102668        59.1342667134679        1.60109682063367        2.34865438389578       0.455147566783023        1.87609670200112         248.99951379626        19.3118593034033        5.14274391502036       0.453920666241146        1.87164062159418                    1500        10.7836587979494        2.12558738306704        8.93884764661983        2.03444825690547        1.30300846346982        1.91115977066175                      20      0.0849652204982095       0.553408336249695 
     0.0786718358596555       0.498708484238766                       0    0.000511723511981987  -3.31046817576678E-005    -0.00138293769890483                       0        345.025086378343        3.97883444230038          787.5499464566        238.643262414904         59.386294176225        1.56344163204853        2.29434504223679       0.464163235319923        1.91297396802156        249.127748135384        19.2826313692574        5.10390951441188       0.462427836905892        1.90642502886292                    1500        10.7680188820022        2.09131671997109         8.9434549666486        2.01873456880647        1.32068720657676        1.93729117167221                      20       0.331405814384988        2.07440647568966 
     0.0944298320023811       0.498708484238766                       0    0.000511869297395234  -2.00198888436395E-005   -0.000500643695303258                       0        345.094938049684         4.1956117739967         786.75712261115        237.970474802666          59.35035947376        1.53963137159628        2.26000797583782       0.463054616279872        1.90864294999128        249.051990542241        19.2838196966272        5.11165414411541       0.460271053676815        1.89779656395986                    1500        10.7655133892766         2.1000853585056        8.95390626687473        2.02392985361565        1.32098415491041        1.93804640339614                      20       0.120118999049465       0.750965520789955 
      0.110187828145107       0.498708484238766                       0    0.000511941685427417  -1.12511722296485E-006  -1.68022252634013E-005                       0        341.081613098368        7.00603832413229        764.836596712766        220.403607565801        58.3600805049123        2.06314902280136        2.93103875646711       0.451183155661757        1.85467129145174        245.948865785451        20.4017621323421         5.2475266539053        0.43110596384864        1.77682210767901                    1500         11.239265525682        2.21881376245189         9.1720255231637        2.03722193194539        1.28681863362286        1.87651053708184                      20      0.0036447183148881      0.0252033378921601 
      0.125945824287832       0.498708484238766                       0     0.00051197211586098  -5.07037431566743E-006  -9.84468501233259E-005                       0        342.984803415042        6.15533302703427        770.745890687478        224.733287189997        58.6138123737443        1.92399766650748         2.7780003742263       0.445202396508203        1.83355685313004         246.95137074861        19.8803886466288        5.23923097814727       0.439194992094179        1.81027267271656                    1500        11.0069390144514        2.18565609119912        9.01788721573675        2.03753347784095        1.28214658026863        1.87555959427341                      20      0.0226243148238558       0.147670274780608 
      0.141703820430558       0.498708484238766                       0     0.00051195919307509  -4.42293905445925E-007  -7.87202412904631E-005                       0         340.76594502803        6.23275450558489        771.846596765295         223.56259951328        58.5809600901279         2.3114760569729        2.85094294767795        0.44152907774136        1.81654314870786        248.551329652281        20.2826083658726        5.21030876008738        0.43647438653781        1.79913793057266                    1500        11.3168469684455        2.19666216539633        9.20023319941459        2.04119482017673        1.28042412648007        1.86938994530069                      20      0.0184937512461449       0.118080365976386 
      0.157461816573283       0.498708484238766                       0    0.000511920443511466  -7.56844094251331E-007  -2.46853415938821E-005                       0        340.627655877863        6.83760548816054        770.456927161062        221.316655975491        58.4732008161249         2.2407902475009        2.74344143488505       0.436703381944397        1.79665034032673         249.16039472734        20.3002394027095        5.21301862453598       0.432716255969996        1.78362286540712                    1500        11.3549986900399        2.21191253919017        9.22673583904125        2.05274123527893        1.27136129429123         1.8553466436056                      20     0.00526163245069936      0.0370280127761666 
      0.173219812716009       0.498708484238766                       0    0.000511919597779405  -4.27455630387742E-006   -0.000883978847435675                       0        345.189378593137        3.94138852197956        789.083524350766        239.210316138561        59.4281976318825        1.51411340946737        2.22280736129656       0.463625580637863        1.91101988185781        249.824918215266        19.2196431204068        5.08853828137186       0.463285049825164        1.91017660763715                    1500        10.7590161372081        2.08789634171965        8.95508425418807          2.024701997936        1.32163166532213        1.93912609985686                      20       0.210752024724709        1.32596829170374 
      0.188977808858735       0.498708484238766                       0    0.000511919839590045   3.20592015567434E-007    -0.00180019816693934                       0        345.150367341738        3.70997782777169        790.400420789939         240.48177710109        59.4957760516643        1.49632609647252        2.19621680315037       0.466072904293729        1.92089378460032        249.866769242816        19.2204776574981        5.07798957997356       0.465832378123361        1.92045950434057                    1500        10.7597767394602        2.07779561070683         8.9618636652288        2.02170117254547        1.32607089147721        1.94545151588647                      20       0.435804623317129        2.70029722989973 
       0.20473580500146       0.498708484238766                       0     0.00051191702675394   7.55347900267809E-006   -0.000954044695828502                       0        345.237494233537        4.24376727076147        787.748711110997        237.793607565057        59.3543646721983        1.50600471882658        2.21117054039899       0.460841039218767        1.89965636451549        249.875482398317        19.2121976038531        5.09793297080162       0.460662633670889        1.89947860134906                    1500        10.7583135997531        2.09834815695346        8.94732009940184        2.02907939666426        1.31560316630631        1.93035744592627                      20         0.2272266301544        1.43106701056609 
      0.220493801144186       0.498708484238766                       0    0.000511916560724149  -3.43400794537331E-006   -0.000299038099406195                       0        345.299307052788        5.12314823895735        783.464328247623        233.466163097542        59.1267774697138        1.51434129593293        2.22374690624251       0.453038062266974        1.86778417950423        249.881910623062        19.2132507353828          5.128442137973       0.452876808976073        1.86768207568787                    1500        10.7631966758254        2.12959084806462        8.93494374527152         2.0419891615876        1.30001647291523         1.9075360517957                      20      0.0701249511205761       0.448557140476302 
      0.236251797286911       0.498708484238766                       0    0.000511923657293297   8.71012401698515E-008   -0.000246195320405781                       0        345.192206676674        5.35561469275447        781.787426865842         231.74218356884        59.0352804966749        1.58369492312395        2.32499369998728        0.45048092757246        1.85718772252513        249.903543174779        19.2260152796288        5.13776885577265       0.450319039803131        1.85708661645256                    1500        10.7729625314932        2.13992620101513        8.92976838828817        2.04554783151059        1.29310336107756        1.89706997664708                      20      0.0572375180099955       0.369292981720819 
      0.252009793429637       0.498708484238766                       0     0.00051192270255577   5.04619953449116E-007   -0.000179632910913476                       0        344.360802262169        5.93366725444935         777.22040395251        227.115459328692        58.7888283864151        1.80007492276129        2.62458386415171       0.443528177304822        1.82802449034364        249.906162233134        19.3797487496437        5.16413224495146       0.443330976103511        1.82781885449469                    1500        10.8662476854209        2.16831646903489        8.95066171553047        2.05183362083027        1.27497214397837        1.86839260248428                      20      0.0423255452374589        0.26944937051437 
      0.267767789572362       0.498708484238766                       0     0.00051193039683812  -1.92501297160474E-006  -7.60930353615421E-005                       0        343.935177309998        6.31401133299364         774.34171788942        224.197557842748         58.633614198977        1.92206854624462        2.79337816599738       0.439075178527445        1.80939837923905        249.906408570451        19.4582312152874        5.18040217810849       0.438834594352319        1.80903530305232                    1500         10.915274533328        2.18644387793911        8.95128933620462        2.05366064312665         1.2633194205765         1.8501671205357                      20      0.0171634666277554       0.114139553501413 
      0.283525785715088       0.498708484238766                       0    0.000511953622519916  -2.85629417812056E-006   -0.000141127811646657                       0        344.679912432738        5.54540983593149        778.471927589329        228.343635114599        58.8535584432216        1.87101240713079        2.73892524047471       0.445564112225998         1.8365830993722        249.917877050584        19.2877974362364        5.15287315153746       0.445169615257198        1.83554704310681                    1500        10.8163879173244        2.16029361672781         8.8960735795332          2.039188741443        1.27744452046149        1.87284825564993                      20      0.0321043462788418       0.211691714964481 
      0.299283781857814       0.498708484238766                       0    0.000511960282103629  -1.98594403255286E-006   -0.000151225811507909                       0        344.868637268838        5.47360108854645        779.524741464489        229.402512183983         58.910756647899         1.7930772217508        2.62862912916124       0.447153384565561          1.843262434433        249.926880483205        19.2583303075716        5.14690644192094       0.446738767550556        1.84213648907921                    1500        10.7984499235447        2.15399866269614        8.90006442123262        2.03943461873706        1.28241043925058        1.88058861709533                      20      0.0348147623685177        0.22683871905478 
