VARIABLES = "X"
 "Y"
 "Z"
 "HEAD"
 "VELOCITY_X1"
 "VELOCITY_Y1"
 "VELOCITY_Z1"
 "Bfo1"
 "Bmo1"
 "doc1"
 "dox1"
 "Amm1"
 "Bifo1"
 "Bimo1"
 "Bfn1"
 "Bmn1"
 "nitra1"
 "Bifn1"
 "Bimn1"
 "Bfs1"
 "Bms1"
 "sulpha1"
 "Bifs1"
 "Bims1"
 "Bfa1"
 "Bma1"
 "Bifa1"
 "Bima1"
 "tr1"
 "DOXFLUX"
 "SFLUX"
ZONE
DT=(DOUBLE,DOUBLE,DOUBLE,DOUBLE,DOUBLE,DOUBLE,DOUBLE,DOUBLE,DOUBLE,DOUBLE,DOUBLE,DOUBLE,DOUBLE,DOUBLE,DOUBLE,DOUBLE,DOUBLE,DOUBLE,DOUBLE,DOUBLE,DOUBLE,DOUBLE,DOUBLE,DOUBLE,DOUBLE,DOUBLE,DOUBLE,DOUBLE,DOUBLE,DOUBLE,DOUBLE)
       0.01509425875428      0.0017378726906897                       0   1.01737719929398E-006   5.15856932726969E-006    -0.00186826232052053                       0       0.829974792285247       0.124346951141761        530.947074225393        2.06083423203075        47.4353551922185        277.953095810615        41.3674596055194        0.60273856057735       0.089355535909265        223.492650938614        38.9482892103339        5.81113768072436    0.000895596138149897    0.000132909343317838                    1500        25.5272234384147        3.79147556655334       0.388471669367243      0.0711135226379015     0.00213196371693328    0.000367762084492178                      20     0.00386354198617508        2.80239359072318 
     0.0309164422540025      0.0017378726906897                       0   1.09209450285021E-006   6.05288570256131E-006   -0.000347737914780944                       0       0.810911623283295       0.120317862411953        531.471640192139        2.05009668536685        47.5416231588517        277.669710352229        40.9661565739297       0.614910213942889      0.0904437337947578        223.464262764633        38.5998987991606         5.7093688385696    0.000911186037980322    0.000134045868755488                    1500        25.8665082855541        3.80794103596953        0.33011722629931      0.0599649095836606      0.0019454084084068    0.000332989067319746                      20    0.000712944048206468       0.521606885992995 
     0.0467386257537249      0.0017378726906897                       0   1.05162348041722E-006   2.07063054052085E-006   -0.000100890554031528                       0        0.77858052623777       0.112967788552136        532.845500798721         2.0306909506132        47.8135366332052        276.657533786686         39.940020298276       0.635171431119861       0.091478705678225        223.430340253296        37.6551126450219        5.45156942033065    0.000953635199403996    0.000137178194599931                    1500        26.8550009279657        3.86513883831081       0.247953759700808      0.0443273357933624     0.00161995491049722    0.000271452779352756                      20    0.000205661297347436       0.151335829365909 
     0.0625608092534473      0.0017378726906897                       0   5.63663515904716E-007   9.70879756261074E-007  -4.52266792996699E-005                       0        0.72454699802099       0.100187947486571        535.759479013899        1.99648021433947        48.3772550888106        274.287364712771        37.8110073755886       0.667671585999434       0.091970045008863        223.421505078097        35.5679431948159        4.91790866469203     0.00104995925031831    0.000144087683226758                    1500        29.1414571359024        4.00018379599157       0.130191852985972      0.0223893052129742     0.00103881148085888    0.000167693530945836                      20   9.03478926935419E-005      0.0678400179774131 
     0.0783829927531697      0.0017378726906897                       0   1.65858440224667E-006  -1.58025215298456E-006  -3.41074120870506E-005                       0       0.670308485071176      0.0870189766039746        539.703010117396        1.95914679892175        49.0984847673562         270.79268289005         35.085966934601       0.694068286362142      0.0899672585437968        223.588712114852        32.5331219228949        4.23062478223469     0.00119617840118509    0.000153911214504969                    1500        32.6500267586104        4.20194179356592      0.0501314185915799     0.00824759079041409    0.000481542254005764   7.45853926822548E-005                      20   6.68014904418995E-005      0.0511611176973805 
     0.0942051762528921      0.0017378726906897                       0   3.32125557249637E-006   -2.2162263816418E-006  -5.39133764263284E-005                       0       0.644305723525687      0.0808316411521423        541.821696102837        1.94038219740552        49.4636780312042        268.909103876501        33.7110290493651       0.703948856279691      0.0884141605912478        223.768748569434        30.8274216012343        3.87729862522846     0.00127891245647256    0.000159172486061172                    1500        34.6271448914513        4.31027368911605      0.0220600853556663     0.00351136173062821    0.000241118513863175   3.69171874774396E-005                      20    0.000104638458389473      0.0808700622820042 
      0.110027359752615      0.0017378726906897                       0   4.62015598615651E-006  -1.56148530146952E-006  -2.68733555642617E-005                       0       0.623465935409569      0.0761723220723053        543.663095696993        1.92447405167953        49.7454146149627         267.45416691724        32.6632126886569       0.711141675521611      0.0870612437734577        224.067012088973        29.3266896866669         3.5934480416422     0.00134954992582435     0.00016350265012322                    1500        36.2999148668696        4.39840933348287     0.00932624633905687     0.00145206763142333     0.00011238085937259   1.70292156691127E-005                      20   5.17170830731819E-005      0.0403100331631044 
      0.125849543252337      0.0017378726906897                       0   6.58626757135011E-006  -8.01809762539735E-007  -1.70426487886718E-005                       0       0.606849102639423      0.0728720971913526          545.1612997789        1.91085143156393        49.9276351696254        266.685972115964        32.0147682762612       0.719564729504161        0.08662589788956        224.495441709414        28.1440645883574        3.39047153587267     0.00139743633784245    0.000166315895249589                    1500        37.4010163410283        4.45188011422929     0.00409131696136056    0.000628960689995395   5.32650754626558E-005   8.02119558724109E-006                      20   3.25825739475078E-005      0.0255639731621097 
      0.141671726752059      0.0017378726906897                       0   5.47116737659878E-006   1.80512638571476E-006  -2.42348967544684E-005                       0       0.591286653205406       0.070349057374137        546.535177329262        1.89681279436169        50.0254688260598        266.729141013717        31.7290407083182       0.734688711619077      0.0876863954994589        225.162378247685        27.1713097227659        3.24412998757549     0.00142082671114415    0.000167525339351389                    1500        37.8712650275122        4.46586351319008     0.00168672861738939    0.000257017486708999   2.44053130841404E-005   3.69050414350213E-006                      20   4.59705931674258E-005       0.036352345975819 
      0.157493910251782      0.0017378726906897                       0   2.89569392439376E-006   1.67566405930404E-006  -7.31287688627163E-005                       0       0.581952925361616      0.0695140883097155        547.286838764766        1.88694337213253        49.9882166521505        267.752779518736        31.9789369775038       0.755299328525104      0.0905526209581504         225.88745759125         26.827485260222        3.21687740094384     0.00140442770349689    0.000166291178987634                    1500        37.3702814137103        4.42540329842981     0.00164048787126417    0.000250644223529169   2.57747310785957E-005   3.99456675404075E-006                      20    0.000137894045515672       0.109693153455962 
      0.173316093751504      0.0017378726906897                       0   1.55802483376324E-006   2.04549793826081E-007  -5.81956240800064E-005                       0       0.573826601073381        0.06931698502379        547.849608263766        1.87739444749298        49.8743954331422         269.38191900687        32.5444342750148       0.784905872756495      0.0953003244521572        226.772668976775        26.7769210759401        3.24883709264751     0.00136711333350077    0.000163761890410864                    1500         36.348654820346        4.35464291680033     0.00280889508920651     0.00043447362919494   4.97269549657206E-005   8.01193904943075E-006                      20    0.000109546193549731      0.0872934338042192 
      0.189138277251227      0.0017378726906897                       0   2.50616018625524E-006   -3.1051552051274E-006  -4.40755300975509E-005                       0        0.55399855483085      0.0698273331129207         549.10880898676        1.85243319733898        49.4366918266671        274.560529444778        34.6032684671025       0.885080251828819       0.112201484607946        229.484706046835        27.1426187509713        3.43922289317337     0.00123658690061778    0.000154828203805686                    1500        32.8629829697856        4.11525584654152     0.00911538648456251     0.00145311944657885    0.000195472661433657   3.17568350131726E-005                      20   8.15988767730263E-005      0.0661132944473457 
      0.204960460750949      0.0017378726906897                       0    5.4793615136025E-006  -3.18069652563668E-006   -0.000270758749815121                       0       0.550443716424679      0.0701736983137105        549.317221532925        1.84762628343652        49.3179954024144        275.726305418494        35.1414110337179       0.910397047479258       0.116662636045053        230.118966310935        27.3292858889303         3.5026343652978     0.00120421560203178    0.000152569086151715                    1500        32.0138434012744        4.05666067316013       0.011502453293895     0.00184865769679904     0.00025628690135494   4.14723267095346E-005                      20    0.000500233991015554        0.40613812610636 
      0.220782644250671      0.0017378726906897                       0   4.51704134498993E-006   6.79789937241326E-006   -0.000210694899177011                       0       0.549422540508457      0.0701732695961656         549.37408560344        1.84637305749976        49.2979961013842        275.977947308815        35.2379103185619       0.915342404280263       0.117504881501264        230.241892438323        27.3346436990641        3.50991231290074     0.00119830007666751    0.000152110894639176                    1500        31.8543615544131        4.04420526788991      0.0114642584942002     0.00184526325149633    0.000258093874673613   4.16752720851963E-005                      20     0.00038903577702846       0.316042345387389 
      0.236604827750394      0.0017378726906897                       0   4.20735407659176E-006   1.10017327490823E-006  -2.48308841374024E-005                       0       0.546552004869116      0.0698235744060666        549.523181296489        1.84336410477108        49.2936803591348        276.347864288577        35.2946937193074       0.920023145382483       0.118149314994422        230.369902160432        27.1746111880352        3.49060435455655     0.00119338677676956    0.000151539130484244                    1500        31.6985073400732        4.02578845286731     0.00906953276574949     0.00146009985204587    0.000208531766630753   3.35649502645112E-005                      20   4.57979501690726E-005      0.0372463247894089 
      0.252427011250116      0.0017378726906897                       0   1.34003310994691E-005   -1.2670380745014E-007  -4.07240731604038E-006                       0       0.543675023779146      0.0700597071811639        549.646599470456        1.83954205136321        49.1992886319194        277.309850391277        35.7252978140973       0.939985012445524       0.121790294657915        230.840340567075        27.3083889745167        3.53894344990575     0.00116801396417302    0.000149651176508737                    1500        31.0302368248229        3.97637962306457     0.00970635319412214     0.00157476445523105    0.000232326125713761   3.77418135368265E-005                      20   7.49184356457848E-006     0.00610861089197715 
      0.268249194749839      0.0017378726906897                       0    9.0589346334734E-006   6.74138636433196E-007  -4.36349045237579E-006                       0       0.545364987333358      0.0719027307993209        549.527990727687        1.83899896511215        48.9499210847716        278.737456218044        36.7326063341424       0.981013001129585       0.130015767782694        231.756000486126        28.2232197446779        3.74194710967758     0.00111709515077161    0.000146516713886255                    1500        29.7749979992216        3.90597253196554      0.0215213127283811     0.00355539361538693     0.00052791496948156    8.7130178489927E-005                      20   8.02467428001185E-006     0.00654523580450318 
      0.284071378249561      0.0017378726906897                       0   4.30469091153838E-007    1.2647938794127E-006   -0.000734254541267575                       0       0.550273814768914      0.0742597786468225        549.321119173728        1.84166652017658        48.6956844424491        279.728070116596        37.7196883116327        1.01768048507476       0.137955573760514        232.630184306931         29.290214170505        3.97364286033265     0.00107242976683596    0.000144026716590738                    1500        28.7100483068085        3.85662869578855       0.044255016557493     0.00744312004889176     0.00108665689202954     0.00018151424574313                      20     0.00135226035174401         1.1013818199026 
      0.299893561749284      0.0017378726906897                       0   4.25374811818176E-007   3.97207949102639E-007     -0.0010314478855225                       0       0.550337582232172      0.0742991979426866         549.31773576482        1.84172625835421        48.6917808363889         279.72462052717        37.7346716982517        1.01814365938364       0.138073958936102        232.643478645258        29.3053484394762        3.97732296405274     0.00107172269626162     0.00014399195152805                    1500        28.6932280182285        3.85598627834603      0.0447058698178626     0.00752143108181197     0.00109760624290637    0.000183386033570512                      20     0.00189964461322765         1.5471718694489 
